111
Lattice="10.86 0.0 0.0 0.0 10.86 0.0 0.0 0.0 30.86" Properties=species:S:1:pos:R:3:surface_properties:S:1 fragment_signature="[O][C](=[O])[F]" step=0 action=START fragment_id=0 energy=-403.95980207 pbc="T T T"
Cu       0.00015386       0.00156947       0.01455179 subsurface
Cu       1.81105916       1.81304714       0.01069389 subsurface
Cu       0.00111791       1.81378292       1.76114046 subsurface
Cu       1.80772640       0.00681941       1.76477838 subsurface
Cu       3.62260397       0.00304543       0.02143786 subsurface
Cu       5.43274821       1.81277301       0.01696426 subsurface
Cu       3.61941018       1.81473056       1.76525387 subsurface
Cu       5.43035076       0.00701985       1.77291585 subsurface
Cu       7.24148546       0.00233357       0.02307713 subsurface
Cu       9.05032476       1.81204829       0.01345257 subsurface
Cu       7.24193542       1.81409361       1.76778171 subsurface
Cu       9.05421459       0.00649534       1.76812303 subsurface
Cu       0.00028956       3.62472649       0.01052798 subsurface
Cu       1.81026473       5.43426681       0.01673726 subsurface
Cu       0.00185784       5.43177943       1.76704912 subsurface
Cu       1.80771191       3.62057616       1.76199305 subsurface
Cu       3.62083041       3.62298789       0.01518555 subsurface
Cu       5.43152949       5.43389209       0.02681421 subsurface
Cu       3.61786468       5.42902639       1.76867868 subsurface
Cu       5.43025380       3.62070292       1.76869470 subsurface
Cu       7.24225254       3.62386394       0.01946444 subsurface
Cu       9.05084125       5.43664995       0.02092713 subsurface
Cu       7.24319715       5.43008386       1.77115284 subsurface
Cu       9.05460899       3.62069733       1.76362302 subsurface
Cu       0.00057481       7.24517568       0.01903505 subsurface
Cu       1.81161847       9.05266598       0.02255145 subsurface
Cu       0.00152607       9.05401126       1.77072810 subsurface
Cu       1.80842674       7.24160037       1.77144613 subsurface
Cu       3.62122053       7.24325665       0.02867875 subsurface
Cu       5.43163505       9.05341627       0.03203257 subsurface
Cu       3.61829285       9.05527679       1.77276119 subsurface
Cu       5.42999435       7.24186318       1.77651215 subsurface
Cu       7.24105368       7.24497150       0.03171828 subsurface
Cu       9.05024135       9.05326994       0.02411104 subsurface
Cu       7.24287723       9.05614948       1.77500679 subsurface
Cu       9.05420181       7.24310512       1.77371519 subsurface
Cu       0.00095483       0.00707182       3.58350902 subsurface
Cu       1.80670912       1.81369237       3.58237093 subsurface
Cu      -0.00160289       1.81181590       5.39702312 subsurface
Cu       1.80323722       0.00832950       5.39480120 subsurface
Cu       3.61360149       0.00711041       3.58374156 subsurface
Cu       5.42906828       1.81396648       3.58439585 subsurface
Cu       3.61074374       1.81208880       5.38799859 subsurface
Cu       5.42768194       0.00567023       5.37921173 subsurface
Cu       7.24481762       0.00711566       3.58531936 subsurface
Cu       9.05366651       1.81388159       3.58301131 subsurface
Cu       7.24588877       1.81262350       5.38820037 subsurface
Cu       9.05438477       0.00781700       5.39359412 subsurface
Cu       0.00050686       3.61892973       3.58245705 subsurface
Cu       1.80754017       5.42609188       3.58473675 subsurface
Cu      -0.00126033       5.42274655       5.38858980 subsurface
Cu       1.80221967       3.61456249       5.39540203 subsurface
Cu       3.61393317       3.61910223       3.58331604 subsurface
Cu       5.42948274       5.42612147       3.58191714 subsurface
Cu       3.61649515       5.42720409       5.38165057 subsurface
Cu       5.42897905       3.61777142       5.38041737 subsurface
Cu       7.24531766       3.61912292       3.58374515 subsurface
Cu       9.05350968       5.42606698       3.58428256 subsurface
Cu       7.24229542       5.42762784       5.38113055 subsurface
Cu       9.05506150       3.61563128       5.39594450 subsurface
Cu       0.00133331       7.24084082       3.58649329 subsurface
Cu       1.80768181       9.05691094       3.58491747 subsurface
Cu      -0.00062288       9.05905122       5.38797366 subsurface
Cu       1.80598162       7.24072272       5.38067739 subsurface
Cu       3.61583241       7.24039907       3.58247054 subsurface
Cu       5.42888098       9.05630368       3.58306037 subsurface
Cu       3.61638923       9.05453624       5.38031988 subsurface
Cu       5.42916196       7.24007708       5.37447737 subsurface
Cu       7.24364083       7.24087115       3.58242242 subsurface
Cu       9.05351746       9.05720374       3.58625664 subsurface
Cu       7.24031934       9.05349658       5.37961681 subsurface
Cu       9.05266914       7.24014626       5.37995391 subsurface
Cu      -0.00260711       0.01691665       7.23213916 subsurface
Cu       1.78843438       1.80939096       7.23407065 subsurface
Cu      -0.01141371       1.79789864       9.08484709 surface
Cu       1.82365424      -0.01432975       8.94292286 surface
Cu       3.61919963       0.00315580       7.19669891 subsurface
Cu       5.42741767       1.81113177       7.19493318 subsurface
Cu       3.62335575       1.81198036       8.94657103 surface
Cu       5.42719378      -0.00527402       8.94623358 surface
Cu       7.23342927       0.00152500       7.19354363 subsurface
Cu       9.06422280       1.81029066       7.23281397 subsurface
Cu       7.22949244       1.81081597       8.94376498 surface
Cu       9.02673905      -0.01956855       8.93766665 surface
Cu      -0.00373107       3.60130748       7.23432747 subsurface
Cu       1.80581911       5.43050584       7.19565957 subsurface
Cu      -0.00115712       5.43809302       8.94710311 surface
Cu       1.81781786       3.63169597       8.94543593 surface
Cu       3.61778675       3.61854837       7.19659993 subsurface
Cu       5.42886672       5.43009630       7.18843110 subsurface
Cu       3.62304796       5.43637473       8.94089850 surface
Cu       5.42747878       3.62684184       8.94564765 surface
Cu       7.23859744       3.62040716       7.19833632 subsurface
Cu       9.05009428       5.43228082       7.19842126 subsurface
Cu       7.23074446       5.43804642       8.94506049 surface
Cu       9.03451833       3.63531161       8.94542028 surface
Cu      -0.00231153       7.24068926       7.19575341 subsurface
Cu       1.80802370       9.05049156       7.19543356 subsurface
Cu      -0.00141631       9.04283040       8.94224031 surface
Cu       1.81442924       7.24095625       8.94426879 surface
Cu       3.61858950       7.24014001       7.18765645 subsurface
Cu       5.42701133       9.04996575       7.18803004 subsurface
Cu       3.62540834       9.04260462       8.94341743 surface
Cu       5.42660443       7.23871720       8.93783041 surface
Cu       7.23787694       7.23969256       7.18897189 subsurface
Cu       9.04783634       9.04745817       7.19382371 subsurface
Cu       7.22606056       9.04130109       8.94269769 surface
Cu       9.04139327       7.24241343       8.94747347 surface
O       -0.16722648       1.58339964      11.76846817 adsorbate
C        0.03398343       1.77570774      12.92197579 adsorbate
O        0.23863555       1.96954245      14.06124112 adsorbate
112
Lattice="10.86 0.0 0.0 0.0 10.86 0.0 0.0 0.0 30.86" Properties=species:S:1:pos:R:3:surface_properties:S:1 fragment_signature="[O]=[C]([OH])[F]" step=1 action="Add H at 3" fragment_id=0 energy=-407.43556238 pbc="T T T"
Cu       0.02373611      -0.01993946       0.06153197 subsurface
Cu       1.83613023       1.79146424       0.06166574 subsurface
Cu       0.02281745       1.79184703       1.80448466 subsurface
Cu       1.83042762      -0.01609681       1.81408747 subsurface
Cu       3.64447216      -0.01973831       0.07191919 subsurface
Cu       5.45036551       1.79095284       0.06928187 subsurface
Cu       3.64135149       1.79334106       1.81742435 subsurface
Cu       5.45585203      -0.01712856       1.82056426 subsurface
Cu       7.25920428      -0.02008245       0.06761027 subsurface
Cu       9.07240816       1.78923672       0.05714127 subsurface
Cu       7.26807755       1.79258881       1.81081107 subsurface
Cu       9.07505174      -0.01623365       1.81109377 subsurface
Cu       0.02609658       3.60166485       0.05660757 subsurface
Cu       1.83352599       5.41342941       0.06667105 subsurface
Cu       0.02069587       5.40594147       1.80990702 subsurface
Cu       1.83039182       3.59987025       1.81220328 subsurface
Cu       3.64262078       3.60241927       0.06782503 subsurface
Cu       5.45093267       5.41125321       0.06945010 subsurface
Cu       3.64127490       5.40695256       1.81982131 subsurface
Cu       5.45539110       3.59922356       1.81598465 subsurface
Cu       7.26006877       3.60030197       0.06005857 subsurface
Cu       9.07234312       5.41283317       0.05991769 subsurface
Cu       7.26728500       5.40638402       1.81296183 subsurface
Cu       9.07644158       3.59826459       1.80463969 subsurface
Cu       0.02123507       7.22319847       0.06766029 subsurface
Cu       1.83351670       9.02970057       0.07099856 subsurface
Cu       0.02016639       9.03263620       1.81604839 subsurface
Cu       1.82961014       7.21780586       1.81905431 subsurface
Cu       3.64156012       7.22087237       0.07516175 subsurface
Cu       5.45218024       9.03133359       0.07607893 subsurface
Cu       3.64198490       9.03083855       1.82077214 subsurface
Cu       5.45649057       7.21662620       1.81927818 subsurface
Cu       7.26094957       7.22227160       0.06992257 subsurface
Cu       9.06988229       9.03146425       0.06742532 subsurface
Cu       7.26667187       9.03214724       1.82007513 subsurface
Cu       9.07435535       7.21911475       1.81524991 subsurface
Cu       0.02170120      -0.01199599       3.62894511 subsurface
Cu       1.82625959       1.79266350       3.63036638 subsurface
Cu       0.02028731       1.79368895       5.46268494 subsurface
Cu       1.82822051      -0.01367496       5.43133153 subsurface
Cu       3.64072674      -0.01260115       3.62815616 subsurface
Cu       5.46183142       1.79379084       3.63076043 subsurface
Cu       3.64191726       1.78853335       5.42866726 subsurface
Cu       5.46262204      -0.01786289       5.41769018 subsurface
Cu       7.27618023      -0.01117936       3.63193509 subsurface
Cu       9.08066413       1.79268189       3.62868774 subsurface
Cu       7.28445262       1.79479908       5.44693646 subsurface
Cu       9.08694192      -0.00847225       5.44404309 subsurface
Cu       0.02144462       3.59431140       3.62985779 subsurface
Cu       1.82503728       5.39795393       3.63249761 subsurface
Cu       0.01937502       5.38927604       5.44875282 subsurface
Cu       1.82295947       3.58725299       5.44568373 subsurface
Cu       3.64142801       3.59447519       3.63200154 subsurface
Cu       5.46335473       5.40011655       3.62827974 subsurface
Cu       3.64605030       5.39695128       5.41725572 subsurface
Cu       5.47069416       3.59383966       5.43180053 subsurface
Cu       7.27647944       3.59382566       3.62937581 subsurface
Cu       9.08124411       5.39784722       3.62948101 subsurface
Cu       7.28157712       5.39264344       5.43435780 subsurface
Cu       9.08650549       3.58880787       5.45731150 subsurface
Cu       0.02086480       7.21244317       3.62993232 subsurface
Cu       1.82703308       9.03118903       3.62735614 subsurface
Cu       0.02704870       9.03245453       5.42783826 subsurface
Cu       1.83123512       7.21053147       5.41963229 subsurface
Cu       3.64296357       7.21254195       3.62453975 subsurface
Cu       5.46027183       9.02903262       3.62452561 subsurface
Cu       3.64502912       9.02710613       5.41105963 subsurface
Cu       5.46271702       7.21063460       5.41166767 subsurface
Cu       7.27422152       7.21085718       3.62823412 subsurface
Cu       9.08088951       9.03223421       3.63181535 subsurface
Cu       7.27647126       9.02705611       5.41647038 subsurface
Cu       9.08302084       7.20417645       5.43150065 subsurface
Cu       0.03438108      -0.00614874       7.27253981 subsurface
Cu       1.82105223       1.78137446       7.27386435 subsurface
Cu       0.10072923       1.71032200       9.13347162 surface
Cu       1.89659731      -0.07536540       8.98188103 surface
Cu       3.65587081      -0.02763815       7.22168000 subsurface
Cu       5.46050333       1.78498438       7.23145934 subsurface
Cu       3.65897496       1.77205316       8.98300989 surface
Cu       5.44858832      -0.05368802       8.97942731 surface
Cu       7.27204267      -0.02703559       7.23310634 subsurface
Cu       9.10162598       1.80445202       7.31873454 subsurface
Cu       7.22410757       1.75021595       8.97738943 surface
Cu       9.06301571      -0.07568675       8.97717952 surface
Cu       0.00897566       3.57203060       7.32034795 subsurface
Cu       1.84065924       5.40073369       7.23442911 subsurface
Cu       0.06315742       5.45071314       8.97898018 surface
Cu       1.88755996       3.60734046       8.97762620 surface
Cu       3.65418198       3.59252922       7.22951269 subsurface
Cu       5.45895690       5.40122625       7.22260737 subsurface
Cu       3.66429315       5.42108970       8.97873487 surface
Cu       5.45240445       3.60292059       8.98036787 surface
Cu       7.30469894       3.59550479       7.28864526 subsurface
Cu       9.08101404       5.37236723       7.28946404 subsurface
Cu       7.22237779       5.45520969       8.97878931 surface
Cu       9.00792304       3.66376708       9.13625332 surface
Cu       0.02882767       7.21682817       7.23370164 subsurface
Cu       1.84183287       9.02080077       7.22208023 subsurface
Cu       0.04634667       9.02219092       8.98565322 surface
Cu       1.86686923       7.22610347       8.97957021 surface
Cu       3.65042612       7.21187392       7.21457984 subsurface
Cu       5.46074009       9.02192252       7.21316035 subsurface
Cu       3.66543715       9.00687007       8.97318415 surface
Cu       5.44680615       7.22794332       8.97463294 surface
Cu       7.27465855       7.21625524       7.22227752 subsurface
Cu       9.08452956       9.02269255       7.22824662 subsurface
Cu       7.25282642       9.01022459       8.97525961 surface
Cu       9.07517711       7.22993800       8.98165026 surface
O       -1.30294971       3.15017479      11.02261818 adsorbate
C       -0.41764365       2.25893107      10.85760407 adsorbate
O        0.10554028       1.74838965      12.01392543 adsorbate
H       -0.33610047       2.21603548      12.75777177 adsorbate
112
Lattice="10.86 0.0 0.0 0.0 10.86 0.0 0.0 0.0 30.86" Properties=species:S:1:pos:R:3:surface_properties:S:1 fragment_signature="[O][C]([OH])[F]" step=2 action="dissociate: 0-1" fragment_id=0 energy=-407.27076541 pbc="T T T"
Cu       0.00286602      -0.02774527       0.07175467 subsurface
Cu       1.81335609       1.78264735       0.07286430 subsurface
Cu      -0.00045422       1.78356544       1.81646129 subsurface
Cu       1.80665988      -0.02435770       1.82094408 subsurface
Cu       3.62155002      -0.02995023       0.08087372 subsurface
Cu       5.43227376       1.77408880       0.08006646 subsurface
Cu       3.61688269       1.78137882       1.82480754 subsurface
Cu       5.42993341      -0.02424948       1.82945492 subsurface
Cu       7.23942998      -0.03062831       0.08136937 subsurface
Cu       9.05151835       1.78016417       0.07023118 subsurface
Cu       7.24581335       1.78008809       1.82545545 subsurface
Cu       9.05520520      -0.02627336       1.82240413 subsurface
Cu       0.00411227       3.59226510       0.06547535 subsurface
Cu       1.81029585       5.39980825       0.07002276 subsurface
Cu       0.00122419       5.39871909       1.81691281 subsurface
Cu       1.80732404       3.59320355       1.82053907 subsurface
Cu       3.62114080       3.58832730       0.07503474 subsurface
Cu       5.43160441       5.39309192       0.07724504 subsurface
Cu       3.61872368       5.39363792       1.82157961 subsurface
Cu       5.43265825       3.59025984       1.82203873 subsurface
Cu       7.24521790       3.58520632       0.07236164 subsurface
Cu       9.05793352       5.39765097       0.06730353 subsurface
Cu       7.24589888       5.39418647       1.81599401 subsurface
Cu       9.05510764       3.59221118       1.81691019 subsurface
Cu       0.00472369       7.21071863       0.06787511 subsurface
Cu       1.81268951       9.02139443       0.07364240 subsurface
Cu       0.00182041       9.02157668       1.81919101 subsurface
Cu       1.80722934       7.20922856       1.81978368 subsurface
Cu       3.61835651       7.21043134       0.07876099 subsurface
Cu       5.42819858       9.01667725       0.08688312 subsurface
Cu       3.61564240       9.01767482       1.82684266 subsurface
Cu       5.43148328       7.20627888       1.82392452 subsurface
Cu       7.24299819       7.20781178       0.07805991 subsurface
Cu       9.05313722       9.01999448       0.07354724 subsurface
Cu       7.24643230       9.01621573       1.82388500 subsurface
Cu       9.05815138       7.20845841       1.81626500 subsurface
Cu      -0.00114904      -0.02712730       3.63177459 subsurface
Cu       1.80192848       1.78939968       3.63312062 subsurface
Cu       0.00153728       1.78621773       5.44555032 subsurface
Cu       1.79906963      -0.01948703       5.42948685 subsurface
Cu       3.60914772      -0.02024309       3.63255262 subsurface
Cu       5.42870530       1.78929662       3.63409052 subsurface
Cu       3.60571050       1.79564565       5.43259357 subsurface
Cu       5.42736396      -0.02007717       5.41420052 subsurface
Cu       7.24446140      -0.02463824       3.63046526 subsurface
Cu       9.05581617       1.78576543       3.63561364 subsurface
Cu       7.24923449       1.78762958       5.42877200 subsurface
Cu       9.05451289      -0.03020607       5.42947630 subsurface
Cu      -0.00275854       3.59516623       3.63402263 subsurface
Cu       1.80423879       5.39843818       3.63097871 subsurface
Cu      -0.00070667       5.39951698       5.44988825 subsurface
Cu       1.80231337       3.60037092       5.44555428 subsurface
Cu       3.61401866       3.59529827       3.63479195 subsurface
Cu       5.43591564       5.39691891       3.63507644 subsurface
Cu       3.61473263       5.39436336       5.43500376 subsurface
Cu       5.43367638       3.59523840       5.43485594 subsurface
Cu       7.24817558       3.59297045       3.63477696 subsurface
Cu       9.05615600       5.39718249       3.63072258 subsurface
Cu       7.25844175       5.39228734       5.43981995 subsurface
Cu       9.06087057       3.59602236       5.44901955 subsurface
Cu      -0.00129302       7.20635389       3.63191711 subsurface
Cu       1.80281123       9.01859294       3.63502542 subsurface
Cu      -0.00694521       9.01317377       5.43387519 subsurface
Cu       1.80236877       7.20421071       5.43507030 subsurface
Cu       3.61670452       7.20698487       3.63417993 subsurface
Cu       5.42928831       9.02013657       3.62808427 subsurface
Cu       3.61552778       9.02380894       5.41529672 subsurface
Cu       5.43882612       7.20731047       5.41905937 subsurface
Cu       7.24726351       7.20444473       3.63057293 subsurface
Cu       9.05440271       9.01535278       3.63158889 subsurface
Cu       7.24314354       9.01807283       5.42098143 subsurface
Cu       9.05683929       7.20183722       5.44265639 subsurface
Cu      -0.00212697      -0.01534102       7.25496543 subsurface
Cu       1.79192399       1.80386378       7.27595558 subsurface
Cu      -0.03497539       1.73084487       9.02014571 surface
Cu       1.82397463      -0.04956412       8.97264539 surface
Cu       3.61518600      -0.02306812       7.21828150 subsurface
Cu       5.42938508       1.78428524       7.21958578 subsurface
Cu       3.64375931       1.75640580       8.96948643 surface
Cu       5.42282781      -0.03481584       8.97610560 surface
Cu       7.23453664      -0.02944146       7.22215129 subsurface
Cu       9.05231948       1.78037121       7.24567456 subsurface
Cu       7.20836967       1.74700354       8.98077640 surface
Cu       9.01844751      -0.06113809       8.98466183 surface
Cu       0.01363477       3.60816347       7.25137973 subsurface
Cu       1.80122435       5.39595957       7.27674000 subsurface
Cu       0.03663324       5.48954544       9.08440523 surface
Cu       1.91689337       3.62330941       9.06528179 surface
Cu       3.59558474       3.59874340       7.26547814 subsurface
Cu       5.44482505       5.39904989       7.22835310 subsurface
Cu       3.67935458       5.44767091       8.96487960 surface
Cu       5.43448049       3.58759143       8.97679459 surface
Cu       7.26643264       3.58936940       7.26726191 subsurface
Cu       9.07762329       5.38333846       7.30202044 subsurface
Cu       7.22517384       5.39877053       8.98871618 surface
Cu       9.01631873       3.53607799       9.04527471 surface
Cu      -0.00008597       7.18424476       7.28107940 subsurface
Cu       1.80659435       9.02590316       7.21832156 subsurface
Cu       0.00072270       9.02767661       8.98461833 surface
Cu       1.85815771       7.27180106       8.96344781 surface
Cu       3.63167644       7.21762809       7.21461395 subsurface
Cu       5.43427716       9.02780896       7.21508596 subsurface
Cu       3.64593833       9.02989064       8.96707886 surface
Cu       5.44557375       7.23441763       8.97856628 surface
Cu       7.24763661       7.20878474       7.23823195 subsurface
Cu       9.04952690       9.01623036       7.23616350 subsurface
Cu       7.21509949       9.03400140       8.98475079 surface
Cu       9.02499839       7.24436957       8.99136449 surface
O        0.51597523       4.08728322      10.57689254 adsorbate
C       -0.36057336       3.12140811      10.48292203 adsorbate
O       -0.72856870       2.68074440      11.74036428 adsorbate
H       -1.33898048       1.92651186      11.60175738 adsorbate
113
Lattice="10.86 0.0 0.0 0.0 10.86 0.0 0.0 0.0 30.86" Properties=species:S:1:pos:R:3:surface_properties:S:1 fragment_signature="[OH][C]([OH])[F]" step=3 action="Add H at 0" fragment_id=0 energy=-410.40756219 pbc="T T T"
Cu       0.03582237       0.02186184       0.05583696 subsurface
Cu       1.84886038       1.83092757       0.05626313 subsurface
Cu       0.03452965       1.83100378       1.80077886 subsurface
Cu       1.84657986       0.02264465       1.80288467 subsurface
Cu       3.66387018       0.01997157       0.05687179 subsurface
Cu       5.47181671       1.83314226       0.05913793 subsurface
Cu       3.65755055       1.83343329       1.80334234 subsurface
Cu       5.46799469       0.02324218       1.80654996 subsurface
Cu       7.27770163       0.02162376       0.05809514 subsurface
Cu       9.08627950       1.83133427       0.05338094 subsurface
Cu       7.27806958       1.83346326       1.80288967 subsurface
Cu       9.08542435       0.02331950       1.80193111 subsurface
Cu       0.03688029       3.64489073       0.05431045 subsurface
Cu       1.84603826       5.45789704       0.05622525 subsurface
Cu       0.03773079       5.45528820       1.80392252 subsurface
Cu       1.84453365       3.64222459       1.80151112 subsurface
Cu       3.65680805       3.64421187       0.05798646 subsurface
Cu       5.46595832       5.45636285       0.05874949 subsurface
Cu       3.65514280       5.45325031       1.80552485 subsurface
Cu       5.46740890       3.64398428       1.80532438 subsurface
Cu       7.27932250       3.64590917       0.05757937 subsurface
Cu       9.08915502       5.46012791       0.05712431 subsurface
Cu       7.27787254       5.45422895       1.80800631 subsurface
Cu       9.08799188       3.64333273       1.80243808 subsurface
Cu       0.03919866       7.27015455       0.05800522 subsurface
Cu       1.85136922       9.07360555       0.05676220 subsurface
Cu       0.03576232       9.07566702       1.80209923 subsurface
Cu       1.84435520       7.26642812       1.80461454 subsurface
Cu       3.65721611       7.26464142       0.05726282 subsurface
Cu       5.46829234       9.07110126       0.05804526 subsurface
Cu       3.65689115       9.07373450       1.80839031 subsurface
Cu       5.46613169       7.26274642       1.80960990 subsurface
Cu       7.27605432       7.26615166       0.05945428 subsurface
Cu       9.08452875       9.07569744       0.05982277 subsurface
Cu       7.27742671       9.07402706       1.80754000 subsurface
Cu       9.08752382       7.26533772       1.80682578 subsurface
Cu       0.03049777       0.02532878       3.61807844 subsurface
Cu       1.83829379       1.83083516       3.61799861 subsurface
Cu       0.02455673       1.82217386       5.42961087 subsurface
Cu       1.83522642       0.02449803       5.42646859 subsurface
Cu       3.65050371       0.02555076       3.61758211 subsurface
Cu       5.46493324       1.83377835       3.61927581 subsurface
Cu       3.64644832       1.82738948       5.42299910 subsurface
Cu       5.46129688       0.02503135       5.42169853 subsurface
Cu       7.27480906       0.02456139       3.61938467 subsurface
Cu       9.08420953       1.83051945       3.61797816 subsurface
Cu       7.27319173       1.82721677       5.42867252 subsurface
Cu       9.07706749       0.02002808       5.43351093 subsurface
Cu       0.03263891       3.63616758       3.61852909 subsurface
Cu       1.84087818       5.45008971       3.61556405 subsurface
Cu       0.02879287       5.44943808       5.41820126 subsurface
Cu       1.83581149       3.63495642       5.41999361 subsurface
Cu       3.65082838       3.64072550       3.61657284 subsurface
Cu       5.46077778       5.44921076       3.61956396 subsurface
Cu       3.64343936       5.44579124       5.41213267 subsurface
Cu       5.45809900       3.63729798       5.41746462 subsurface
Cu       7.27601545       3.63847698       3.61981726 subsurface
Cu       9.08553680       5.44977135       3.61829589 subsurface
Cu       7.27002154       5.44933747       5.41481735 subsurface
Cu       9.08240708       3.63421264       5.42562663 subsurface
Cu       0.03255339       7.26619113       3.61792221 subsurface
Cu       1.83840649       9.07677238       3.61797620 subsurface
Cu       0.02657529       9.07617117       5.42582190 subsurface
Cu       1.83590151       7.26464755       5.41657722 subsurface
Cu       3.64876267       7.26168251       3.61854857 subsurface
Cu       5.46358224       9.07442933       3.62154078 subsurface
Cu       3.64438489       9.07666260       5.41474185 subsurface
Cu       5.45506623       7.25902201       5.41482557 subsurface
Cu       7.27496207       7.26345014       3.62177988 subsurface
Cu       9.08283787       9.07475593       3.61879839 subsurface
Cu       7.27059645       9.07330991       5.42358056 subsurface
Cu       9.08069238       7.26639144       5.42137547 subsurface
Cu       0.00516514       0.01331671       7.26695558 subsurface
Cu       1.83331889       1.82069194       7.24180806 subsurface
Cu       0.04484292       1.85368615       8.96910160 surface
Cu       1.83996027       0.01650800       8.99255119 surface
Cu       3.64648698       0.02157513       7.23777919 subsurface
Cu       5.45879474       1.82631623       7.23573396 subsurface
Cu       3.64664080       1.83320859       8.98607060 surface
Cu       5.45672687       0.01332167       8.98924591 surface
Cu       7.27621856       0.01310899       7.25843950 subsurface
Cu       9.07530119       1.80779851       7.26185353 subsurface
Cu       7.25603382       1.84324065       8.98251965 surface
Cu       9.05164093      -0.00340558       9.08791678 surface
Cu       0.02540896       3.63644757       7.23303061 subsurface
Cu       1.83198640       5.44574779       7.22178759 subsurface
Cu       0.03339445       5.45656116       8.97486799 surface
Cu       1.83636567       3.64297565       8.98286449 surface
Cu       3.64303950       3.63431811       7.22949162 subsurface
Cu       5.45000401       5.44510812       7.22010641 subsurface
Cu       3.63772574       5.44277373       8.97202097 surface
Cu       5.45287988       3.64913428       8.97639642 surface
Cu       7.26797707       3.63852906       7.22810445 subsurface
Cu       9.08075202       5.45722639       7.22340137 subsurface
Cu       7.25396933       5.45697400       8.97440833 surface
Cu       9.07594955       3.66645279       8.96152812 surface
Cu       0.02847768       7.26217720       7.22647759 subsurface
Cu       1.84051663       9.07654985       7.23068217 subsurface
Cu       0.05049720       9.03950371       8.97771191 surface
Cu       1.85127781       7.25265397       8.97467314 surface
Cu       3.64199068       7.25877606       7.21738389 subsurface
Cu       5.44957689       9.06832005       7.22201889 subsurface
Cu       3.65133974       9.06117154       8.98250228 surface
Cu       5.43269935       7.23857146       8.96965765 surface
Cu       7.26044173       7.25622654       7.22308236 subsurface
Cu       9.06796859       9.08567632       7.26099038 subsurface
Cu       7.21374633       9.02042564       8.97385255 surface
Cu       9.06964000       7.26012967       8.97727515 surface
O       -2.85853666       0.02156961      11.79744653 adsorbate
C       -1.86284708       0.30876761      10.94846933 adsorbate
O       -0.88277477       0.78928051      11.72184008 adsorbate
H       -0.11526702       1.02186450      11.13933676 adsorbate
H       -3.62369477      -0.30099754      11.26673817 adsorbate
114
Lattice="10.86 0.0 0.0 0.0 10.86 0.0 0.0 0.0 30.86" Properties=species:S:1:pos:R:3:surface_properties:S:1 fragment_signature="[OH][CH]([OH])[F]" step=4 action="Add H at 1" fragment_id=0 energy=-413.81859477 pbc="T T T"