111
Lattice="11.82 0.0 0.0 0.0 11.82 0.0 0.0 0.0 30.82" Properties=species:S:1:pos:R:3:surface_properties:S:1 fragment_signature="[O][C](=[O])[F]" step=0 action=START fragment_id=0 energy=-649.80656254 pbc="T T T"
Pt      -0.00097317      -0.00148827      -0.12629821 subsurface
Pt       1.96855902       1.97013954      -0.12774912 subsurface
Pt      -0.00334450       1.96750832       1.88177054 subsurface
Pt       1.96598031      -0.00351073       1.88193497 subsurface
Pt       3.93539213       0.00015494      -0.12897169 subsurface
Pt       5.90458235       1.97081590      -0.12968699 subsurface
Pt       3.93149475       1.96873368       1.88568327 subsurface
Pt       5.90107524      -0.00247728       1.87988332 subsurface
Pt       7.87623161      -0.00034763      -0.12816626 subsurface
Pt       9.84728465       1.96984855      -0.12634865 subsurface
Pt       7.87247363       1.96792395       1.87854952 subsurface
Pt       9.84547966      -0.00443959       1.87569201 subsurface
Pt      -0.00051699       3.93899683      -0.12760023 subsurface
Pt       1.96753160       5.90645995      -0.12947619 subsurface
Pt      -0.00217709       5.90223572       1.88684516 subsurface
Pt       1.96456289       3.93618564       1.88791419 subsurface
Pt       3.93488323       3.93845674      -0.12980810 subsurface
Pt       5.90443602       5.90576699      -0.12943155 subsurface
Pt       3.93180058       5.90302270       1.88740067 subsurface
Pt       5.89996655       3.93632526       1.88521622 subsurface
Pt       7.87656559       3.93910106      -0.12834502 subsurface
Pt       9.84910509       5.90672943      -0.12869503 subsurface
Pt       7.87272237       5.90351391       1.88148895 subsurface
Pt       9.84546701       3.93705976       1.88121956 subsurface
Pt      -0.00007082       7.87588801      -0.12944855 subsurface
Pt       1.96836242       9.84760055      -0.12805194 subsurface
Pt      -0.00267917       9.84344686       1.88055237 subsurface
Pt       1.96533961       7.87136363       1.88621390 subsurface
Pt       3.93376622       7.87602330      -0.12905612 subsurface
Pt       5.90525429       9.84852821      -0.12916983 subsurface
Pt       3.93289502       9.84395205       1.88184226 subsurface
Pt       5.90073199       7.87158280       1.88068783 subsurface
Pt       7.87858638       7.87597782      -0.12896053 subsurface
Pt       9.84905247       9.84669324      -0.12797045 subsurface
Pt       7.87216446       9.84263334       1.87560581 subsurface
Pt       9.84694644       7.87150297       1.88073955 subsurface
Pt      -0.00913357      -0.00776902       3.89536165 subsurface
Pt       1.95804258       1.96173483       3.90737633 subsurface
Pt      -0.01251253       1.95628242       5.94299601 subsurface
Pt       1.94613507      -0.00338487       5.94823886 subsurface
Pt       3.92459563      -0.00353863       3.90019006 subsurface
Pt       5.89435960       1.96403152       3.90072502 subsurface
Pt       3.90780962       1.96231358       5.96209574 subsurface
Pt       5.88331076      -0.01320393       5.92471224 subsurface
Pt       7.86732781      -0.00837231       3.88784614 subsurface
Pt       9.84114626       1.96143672       3.89485486 subsurface
Pt       7.86576416       1.95442866       5.92983453 subsurface
Pt       9.83545695      -0.01535151       5.92536215 subsurface
Pt      -0.00912263       3.92820468       3.90772208 subsurface
Pt       1.95915440       5.89425441       3.91312262 subsurface
Pt      -0.00709454       5.87663963       5.96055015 subsurface
Pt       1.94598040       3.91524370       5.96071771 subsurface
Pt       3.92459948       3.92812506       3.91217949 subsurface
Pt       5.89273980       5.89289154       3.90365897 subsurface
Pt       3.91054093       5.87919500       5.96271885 subsurface
Pt       5.87969597       3.91933840       5.95009889 subsurface
Pt       7.86862373       3.92759183       3.89885662 subsurface
Pt       9.84345247       5.89380264       3.90043236 subsurface
Pt       7.86263188       5.88040884       5.92976127 subsurface
Pt       9.84663822       3.91536409       5.94720826 subsurface
Pt      -0.00737089       7.86463305       3.90039290 subsurface
Pt       1.95829641       9.84015666       3.89938229 subsurface
Pt      -0.01434131       9.83679020       5.92927638 subsurface
Pt       1.94939433       7.84938540       5.94773407 subsurface
Pt       3.92287971       7.86357896       3.90484183 subsurface
Pt       5.89309026       9.83839373       3.89134258 subsurface
Pt       3.91168221       9.83437002       5.93014596 subsurface
Pt       5.88402723       7.85394203       5.92857080 subsurface
Pt       7.86725185       7.86361122       3.89172204 subsurface
Pt       9.83961029       9.83799206       3.88808847 subsurface
Pt       7.85732330       9.82841862       5.91562867 subsurface
Pt       9.83626094       7.85283006       5.92304917 subsurface
Pt      -0.02972863      -0.00244938       7.96368321 subsurface
Pt       1.91566787       1.97137954       8.02390859 subsurface
Pt      -0.08785147       1.88553358      10.17414451 surface
Pt       1.92445928      -0.02994632       9.96610344 surface
Pt       3.90836858      -0.02333591       7.94603609 subsurface
Pt       5.88765269       1.94709090       7.94075139 subsurface
Pt       3.92824558       1.93489087       9.94112240 surface
Pt       5.89791928      -0.04821129       9.95494090 surface
Pt       7.85567148      -0.02578376       7.92348102 subsurface
Pt       9.84751753       1.93848293       7.96066376 subsurface
Pt       7.84055999       1.92210988       9.96162843 surface
Pt       9.79015707      -0.06627406       9.95381307 surface
Pt       0.00062048       3.88462708       8.02414932 subsurface
Pt       1.94965086       5.84440706       8.01353482 subsurface
Pt      -0.03408923       5.90033195       9.93822073 surface
Pt       1.99609471       3.96881523      10.22331893 surface
Pt       3.87388217       3.91736544       8.01610902 subsurface
Pt       5.89251578       5.88172103       7.94676752 subsurface
Pt       3.96512505       5.93320925       9.95245258 surface
Pt       5.92331669       3.91835088       9.95382483 surface
Pt       7.86663012       3.90744956       7.94465452 subsurface
Pt       9.82716111       5.87819088       7.94358270 subsurface
Pt       7.85831083       5.89686291       9.96034306 surface
Pt       9.82334306       3.89357535       9.96495097 surface
Pt      -0.02161708       7.85664865       7.93586139 subsurface
Pt       1.94000671       9.83542056       7.94293641 subsurface
Pt      -0.04447754       9.80474996       9.96074771 surface
Pt       1.95107646       7.89190137       9.95220531 surface
Pt       3.91452002       7.86224295       7.94627553 subsurface
Pt       5.88497298       9.82713071       7.92858124 subsurface
Pt       3.92890839       9.82708467       9.96128989 surface
Pt       5.90660941       7.87482250       9.96536304 surface
Pt       7.85724542       7.85336523       7.92830675 subsurface
Pt       9.82568841       9.82305242       7.92039375 subsurface
Pt       7.84483219       9.81448905       9.96579989 surface
Pt       9.80122125       7.86737935       9.95296941 surface
O       -0.08958045       1.89333221      13.03322681 adsorbate
C        0.41795729       2.40515449      12.03940195 adsorbate
O        1.34514984       3.35188578      12.07464148 adsorbate
112
Lattice="11.82 0.0 0.0 0.0 11.82 0.0 0.0 0.0 30.82" Properties=species:S:1:pos:R:3:surface_properties:S:1 fragment_signature="[O]=[C]([OH])[F]" step=1 action="Add H at 3" fragment_id=0 energy=-653.76960351 pbc="T T T"
Pt      -0.00004181      -0.00092539      -0.13993991 subsurface
Pt       1.97101597       1.97022214      -0.13999678 subsurface
Pt      -0.00056049       1.97061809       1.86843012 subsurface
Pt       1.96983645       0.00017201       1.86929673 subsurface
Pt       3.94046060      -0.00047681      -0.13987305 subsurface
Pt       5.90950966       1.97011824      -0.13958333 subsurface
Pt       3.94033748       1.97050243       1.87011819 subsurface
Pt       5.90948481       0.00065004       1.87112215 subsurface
Pt       7.87889211      -0.00089271      -0.13959174 subsurface
Pt       9.84904706       1.97009005      -0.13990844 subsurface
Pt       7.87876812       1.97047750       1.86918432 subsurface
Pt       9.84911286       0.00018628       1.86853050 subsurface
Pt       0.00008517       3.94101648      -0.13997563 subsurface
Pt       1.97094553       5.91094344      -0.13965371 subsurface
Pt      -0.00033065       5.91096503       1.86955051 subsurface
Pt       1.96972570       3.94074162       1.86908558 subsurface
Pt       3.94078690       3.94085608      -0.13956814 subsurface
Pt       5.90994546       5.91064772      -0.13974413 subsurface
Pt       3.93921252       5.91033421       1.87088855 subsurface
Pt       5.90987450       3.94054628       1.87097869 subsurface
Pt       7.87882379       3.94098795      -0.13977205 subsurface
Pt       9.84912862       5.91108692      -0.13983920 subsurface
Pt       7.87974224       5.91007099       1.87091633 subsurface
Pt       9.84956333       3.94040753       1.86846395 subsurface
Pt       0.00003427       7.88026175      -0.13959270 subsurface
Pt       1.97063042       9.84947865      -0.13982126 subsurface
Pt      -0.00033356       9.84941074       1.86969486 subsurface
Pt       1.96951290       7.88018556       1.87110796 subsurface
Pt       3.94063882       7.88012564      -0.13994691 subsurface
Pt       5.90972874       9.84933084      -0.13998059 subsurface
Pt       3.93915803       9.85068896       1.87105753 subsurface
Pt       5.90940395       7.88030069       1.87105126 subsurface
Pt       7.87930044       7.87989812      -0.13978606 subsurface
Pt       9.84918928       9.84907132      -0.13952163 subsurface
Pt       7.87947797       9.85064621       1.87059896 subsurface
Pt       9.84960613       7.87979887       1.87093908 subsurface
Pt      -0.00154347      -0.00023183       3.88424857 subsurface
Pt       1.96928603       1.97062217       3.88482336 subsurface
Pt      -0.00026193       1.96606664       5.91636850 subsurface
Pt       1.96353733       0.00423847       5.93389459 subsurface
Pt       3.93785682       0.00172730       3.88805013 subsurface
Pt       5.90960151       1.97241754       3.88767411 subsurface
Pt       3.93154105       1.96838155       5.93055353 subsurface
Pt       5.90998306       0.00239601       5.92427131 subsurface
Pt       7.88145978       0.00157703       3.88836115 subsurface
Pt       9.84895561       1.97039656       3.88637284 subsurface
Pt       7.88782243       1.96811507       5.93182250 subsurface
Pt       9.85298329       0.00331753       5.93465729 subsurface
Pt      -0.00132198       3.93986007       3.88673263 subsurface
Pt       1.96824864       5.90831533       3.88861893 subsurface
Pt      -0.00064725       5.90166218       5.93026734 subsurface
Pt       1.96515906       3.93519477       5.93181707 subsurface
Pt       3.93907927       3.94051959       3.88865595 subsurface
Pt       5.90965855       5.91029374       3.88853801 subsurface
Pt       3.93723657       5.90930930       5.92720848 subsurface
Pt       5.91001245       3.93891275       5.92660267 subsurface
Pt       7.88121048       3.94029682       3.88945863 subsurface
Pt       9.84917999       5.90801202       3.88907443 subsurface
Pt       7.88139141       5.90705818       5.92942230 subsurface
Pt       9.85486800       3.93294764       5.93407191 subsurface
Pt      -0.00237437       7.88071197       3.88765750 subsurface
Pt       1.96774468       9.85138840       3.88833810 subsurface
Pt      -0.00116588       9.85945923       5.93193163 subsurface
Pt       1.96618049       7.87972519       5.92428279 subsurface
Pt       3.93875199       7.87971484       3.88763161 subsurface
Pt       5.90948462       9.85084611       3.88700908 subsurface
Pt       3.93819204       9.85082174       5.92239134 subsurface
Pt       5.90950231       7.87854321       5.92854539 subsurface
Pt       7.87900127       7.87959651       3.88776430 subsurface
Pt       9.84915393       9.85094024       3.88814156 subsurface
Pt       7.87863420       9.85169358       5.92568338 subsurface
Pt       9.84893356       7.88009562       5.92510571 subsurface
Pt      -0.00449923       0.03402016       7.97691684 subsurface
Pt       1.93674294       1.97156085       7.96869001 subsurface
Pt       0.00465532       1.97288091      10.25611017 surface
Pt       1.96097188       0.00870689       9.95566252 surface
Pt       3.93525937       0.00014721       7.93416663 subsurface
Pt       5.90996734       1.96942193       7.93300030 subsurface
Pt       3.95236055       1.96789644       9.94303241 surface
Pt       5.90529852      -0.00839412       9.95079914 surface
Pt       7.88250580       0.00234377       7.94198441 subsurface
Pt       9.88384539       1.96652400       7.97434535 subsurface
Pt       7.86705881       1.96827726       9.94792896 surface
Pt       9.84459329      -0.00320328       9.96058595 surface
Pt       0.00126776       3.90293896       7.96973977 subsurface
Pt       1.96508566       5.90536637       7.93807248 subsurface
Pt      -0.00106390       5.92145194       9.93957297 surface
Pt       1.96259170       3.93684985       9.95944199 surface
Pt       3.93453363       3.93655023       7.93732143 subsurface
Pt       5.91088949       5.90562988       7.94127343 subsurface
Pt       3.94171413       5.91479913       9.94810651 surface
Pt       5.91006204       3.94743204       9.95058566 surface
Pt       7.88770421       3.93312671       7.94059975 subsurface
Pt       9.85338769       5.90219450       7.93752276 subsurface
Pt       7.88030947       5.90849843       9.95145671 surface
Pt       9.87159489       3.92286901       9.96772120 surface
Pt      -0.00248444       7.88144622       7.93004921 subsurface
Pt       1.96753969       9.85459384       7.93457265 subsurface
Pt      -0.00118071       9.83345847       9.94466294 surface
Pt       1.97679338       7.88487238       9.94920178 surface
Pt       3.93915984       7.87855276       7.93821572 subsurface
Pt       5.90866373       9.84737770       7.93791610 subsurface
Pt       3.94647978       9.84232976       9.94573049 surface
Pt       5.91153929       7.87046082       9.95287603 surface
Pt       7.88027483       7.87678851       7.94031512 subsurface
Pt       9.84909456       9.85438070       7.93928307 subsurface
Pt       7.86832747       9.84188769       9.94952705 surface
Pt       9.83890156       7.87967276       9.95093385 surface
O        0.74945280       1.27067366      12.94254533 adsorbate
C        0.06618803       2.03217224      12.27408458 adsorbate
O       -0.71619189       2.98475489      12.86493100 adsorbate
H       -0.58216336       2.88684688      13.83114846 adsorbate
112
Lattice="11.82 0.0 0.0 0.0 11.82 0.0 0.0 0.0 30.82" Properties=species:S:1:pos:R:3:surface_properties:S:1 fragment_signature="[O][C]([OH])[F]" step=2 action="dissociate: 0-1" fragment_id=0 energy=-653.80473151 pbc="T T T"
Pt       0.00282139      -0.00686320      -0.13169101 subsurface
Pt       1.97004970       1.96403086      -0.13216145 subsurface
Pt       0.00324855       1.96267333       1.87836376 subsurface
Pt       1.97326347      -0.00636182       1.87705241 subsurface
Pt       3.94110517      -0.00622149      -0.13100799 subsurface
Pt       5.91388227       1.96589028      -0.13152163 subsurface
Pt       3.94348957       1.96366134       1.87923524 subsurface
Pt       5.91255037      -0.00614486       1.87768821 subsurface
Pt       7.88293957      -0.00510446      -0.12946836 subsurface
Pt       9.85105925       1.96394775      -0.13126937 subsurface
Pt       7.88352185       1.96336054       1.87764142 subsurface
Pt       9.85335889      -0.00701896       1.87784880 subsurface
Pt       0.00282178       3.93289796      -0.13196333 subsurface
Pt       1.97306910       5.90251832      -0.13189821 subsurface
Pt       0.00367098       5.90278782       1.87935849 subsurface
Pt       1.97347202       3.93263131       1.87862496 subsurface
Pt       3.94272206       3.93553643      -0.13264371 subsurface
Pt       5.91429515       5.90337290      -0.13220211 subsurface
Pt       3.94257098       5.90199413       1.87963268 subsurface
Pt       5.91282630       3.93345708       1.87984143 subsurface
Pt       7.88252800       3.93406186      -0.13230981 subsurface
Pt       9.85269683       5.90090075      -0.13214552 subsurface
Pt       7.88465752       5.90154744       1.87869112 subsurface
Pt       9.85423489       3.93315834       1.87878632 subsurface
Pt       0.00447994       7.87049565      -0.13185660 subsurface
Pt       1.97195814       9.84157313      -0.13151038 subsurface
Pt       0.00308406       9.84264288       1.87846760 subsurface
Pt       1.97393948       7.87238910       1.87913233 subsurface
Pt       3.94162127       7.87179826      -0.13162975 subsurface
Pt       5.91336766       9.84271315      -0.12979004 subsurface
Pt       3.94273673       9.84297579       1.87752567 subsurface
Pt       5.91300748       7.87167209       1.87759466 subsurface
Pt       7.88158891       7.87114101      -0.13055814 subsurface
Pt       9.85315543       9.84225159      -0.13056917 subsurface
Pt       7.88335818       9.84244473       1.87722935 subsurface
Pt       9.85456875       7.87223291       1.87944797 subsurface
Pt       0.00093506      -0.00972178       3.89604969 subsurface
Pt       1.97177357       1.95935092       3.89586509 subsurface
Pt      -0.00129312       1.95375236       5.93196728 subsurface
Pt       1.96437334      -0.00526688       5.94603091 subsurface
Pt       3.94207144      -0.00855805       3.89653014 subsurface
Pt       5.91514662       1.96163615       3.89708322 subsurface
Pt       3.93441089       1.95657854       5.93665938 subsurface
Pt       5.91040123      -0.01163698       5.92960354 subsurface
Pt       7.88265722      -0.00885667       3.89496845 subsurface
Pt       9.85263066       1.96024656       3.89779583 subsurface
Pt       7.89284869       1.95719639       5.94346133 subsurface
Pt       9.85391183      -0.01068413       5.94522846 subsurface
Pt       0.00023710       3.92951729       3.89776936 subsurface
Pt       1.96967677       5.90010250       3.89683113 subsurface
Pt      -0.00115376       5.88863842       5.94177958 subsurface
Pt       1.96056598       3.91776231       5.94023785 subsurface
Pt       3.94137328       3.92933163       3.89882998 subsurface
Pt       5.91378093       5.89771388       3.89359786 subsurface
Pt       3.93735527       5.89325061       5.92957264 subsurface
Pt       5.91495765       3.92429422       5.93428711 subsurface
Pt       7.88673450       3.92957263       3.89762718 subsurface
Pt       9.85401189       5.89861737       3.89829742 subsurface
Pt       7.88590114       5.89144141       5.93720696 subsurface
Pt       9.85940993       3.92060965       5.94889186 subsurface
Pt       0.00485287       7.87291220       3.89816101 subsurface
Pt       1.97127024       9.84307134       3.89680179 subsurface
Pt      -0.00038968       9.84574958       5.94075518 subsurface
Pt       1.96829052       7.86766202       5.93364704 subsurface
Pt       3.94005245       7.87057565       3.89135608 subsurface
Pt       5.91213056       9.84055348       3.89177982 subsurface
Pt       3.93780028       9.83827246       5.93078157 subsurface
Pt       5.90916458       7.86179382       5.92910667 subsurface
Pt       7.88332123       7.86821896       3.89422402 subsurface
Pt       9.85217146       9.84112288       3.89738832 subsurface
Pt       7.87991896       9.83338966       5.93058978 subsurface
Pt       9.85376408       7.86294113       5.93359241 subsurface
Pt       0.00014950       0.01525747       7.98909752 subsurface
Pt       1.93648062       1.95536340       7.99199481 subsurface
Pt      -0.03288510       1.89886992      10.27129231 surface
Pt       1.97224275      -0.01833064       9.97121530 surface
Pt       3.93484897      -0.01163230       7.94407780 subsurface
Pt       5.91031261       1.95513203       7.94080100 subsurface
Pt       3.94409442       1.96159898       9.96141640 surface
Pt       5.90829853      -0.02682402       9.94972250 surface
Pt       7.87802065      -0.01779069       7.93971235 subsurface
Pt       9.88472179       1.95150115       7.98791757 subsurface
Pt       7.86529547       1.94689265       9.95530980 surface
Pt       9.83167206      -0.03711409       9.95605261 surface
Pt       0.00243186       3.88721963       7.99268879 subsurface
Pt       1.96501942       5.88290474       7.94299191 subsurface
Pt       0.01169631       5.89178170       9.97334199 surface
Pt       1.96886467       3.92116378       9.95060650 surface
Pt       3.93009213       3.92021050       7.93851505 subsurface
Pt       5.90893265       5.88792251       7.94535109 subsurface
Pt       3.93603007       5.88797381       9.96348131 surface
Pt       5.91612774       3.92992416       9.95460803 surface
Pt       7.89154241       3.91822609       7.95354379 subsurface
Pt       9.85981237       5.88495518       7.95708393 subsurface
Pt       7.88109768       5.89282437       9.95765593 surface
Pt       9.86527126       3.91045936       9.98511178 surface
Pt       0.00049396       7.86109894       7.94429471 subsurface
Pt       1.96649628       9.83946840       7.94537786 subsurface
Pt      -0.00132987       9.81296472       9.95783695 surface
Pt       1.97892119       7.86821991       9.95758056 surface
Pt       3.93579230       7.85886407       7.94260082 subsurface
Pt       5.90560257       9.82850348       7.94005114 subsurface
Pt       3.94744925       9.82353957       9.95433733 surface
Pt       5.90299132       7.85019089       9.96020644 surface
Pt       7.87941205       7.85564731       7.94509690 subsurface
Pt       9.85035132       9.82967079       7.94060462 subsurface
Pt       7.86193244       9.81234001       9.95303772 surface
Pt       9.84403728       7.86289996       9.95954175 surface
O       -0.44794301       1.31935801      13.05327793 adsorbate
C        0.13130358       2.06402749      12.27175994 adsorbate
O        0.92720864       3.05099790      12.76442049 adsorbate
H        1.35020854       3.56038608      11.99468359 adsorbate
113
Lattice="11.82 0.0 0.0 0.0 11.82 0.0 0.0 0.0 30.82" Properties=species:S:1:pos:R:3:surface_properties:S:1 fragment_signature="[OH][C]([OH])[F]" step=3 action="Add H at 0" fragment_id=0 energy=-657.63703785 pbc="T T T"
Pt       0.00292713      -0.02386166      -0.14651545 subsurface
Pt       1.97169216       1.94484827      -0.14618830 subsurface
Pt       0.00251893       1.94346058       1.86340609 subsurface
Pt       1.97351514      -0.02500957       1.86059569 subsurface
Pt       3.94269573      -0.02534505      -0.14619803 subsurface
Pt       5.91477349       1.94332654      -0.14691694 subsurface
Pt       3.94460577       1.94394363       1.86300049 subsurface
Pt       5.91657770      -0.02427046       1.86428802 subsurface
Pt       7.88614448      -0.02382964      -0.14580258 subsurface
Pt       9.85398931       1.94394469      -0.14796394 subsurface
Pt       7.88706027       1.94503075       1.86681348 subsurface
Pt       9.85462746      -0.02459675       1.86622390 subsurface
Pt       0.00406675       3.91403155      -0.14763994 subsurface
Pt       1.97369487       5.88221734      -0.14733095 subsurface
Pt       0.00388120       5.88535099       1.86448379 subsurface
Pt       1.97161406       3.91302285       1.86437235 subsurface
Pt       3.94303590       3.91333286      -0.14657699 subsurface
Pt       5.91549600       5.88149369      -0.14447913 subsurface
Pt       3.94412589       5.88349008       1.86258717 subsurface
Pt       5.91693535       3.91365182       1.86411211 subsurface
Pt       7.88540118       3.91219174      -0.14705478 subsurface
Pt       9.85592869       5.88177086      -0.14657082 subsurface
Pt       7.88796455       5.88426280       1.86362318 subsurface
Pt       9.85517436       3.91423229       1.86503841 subsurface
Pt       0.00521482       7.85264532      -0.14774142 subsurface
Pt       1.97266774       9.82415037      -0.14707135 subsurface
Pt       0.00489993       9.82600822       1.86545574 subsurface
Pt       1.97326305       7.85619789       1.86222175 subsurface
Pt       3.94475077       7.85064141      -0.14539045 subsurface
Pt       5.91612447       9.82438370      -0.14458710 subsurface
Pt       3.94520802       9.82651778       1.86090152 subsurface
Pt       5.91674896       7.85498946       1.86127752 subsurface
Pt       7.88803101       7.85163683      -0.14387484 subsurface
Pt       9.85663138       9.82570604      -0.14548470 subsurface
Pt       7.88682764       9.82604592       1.86495612 subsurface
Pt       9.85520321       7.85603882       1.86692934 subsurface
Pt       0.00688011      -0.02142276       3.88543197 subsurface
Pt       1.97486853       1.94471501       3.88019265 subsurface
Pt       0.01015247       1.95108312       5.92218110 subsurface
Pt       1.97210667      -0.01274191       5.93699813 subsurface
Pt       3.94462768      -0.01993404       3.88026610 subsurface
Pt       5.91815467       1.94626868       3.88256334 subsurface
Pt       3.93845006       1.94984938       5.92303402 subsurface
Pt       5.91728776      -0.01662829       5.91939236 subsurface
Pt       7.88869240      -0.01976901       3.88555530 subsurface
Pt       9.85835285       1.94752594       3.88640289 subsurface
Pt       7.89906949       1.95152790       5.93187506 subsurface
Pt       9.86654150      -0.00945754       5.93864894 subsurface
Pt       0.00418460       3.91540203       3.88228316 subsurface
Pt       1.97295888       5.88680076       3.87615837 subsurface
Pt       0.00717602       5.88044030       5.92456419 subsurface
Pt       1.97201607       3.91490111       5.92065248 subsurface
Pt       3.94493699       3.91417199       3.87635001 subsurface
Pt       5.91753991       5.88594579       3.87796033 subsurface
Pt       3.94608122       5.89009381       5.90962285 subsurface
Pt       5.92203175       3.91575486       5.91437063 subsurface
Pt       7.89019396       3.91487089       3.88392835 subsurface
Pt       9.85873031       5.88568730       3.88295336 subsurface
Pt       7.89550141       5.88577588       5.92078478 subsurface
Pt       9.86641468       3.91309662       5.93665928 subsurface
Pt       0.00586284       7.86108935       3.88133737 subsurface
Pt       1.97493782       9.83299332       3.88134088 subsurface
Pt       0.00818080       9.84332828       5.93073274 subsurface
Pt       1.97254347       7.86341554       5.91447099 subsurface
Pt       3.94526322       7.85953403       3.87584017 subsurface
Pt       5.91542504       9.82950396       3.87845561 subsurface
Pt       3.94490288       9.83417779       5.91849566 subsurface
Pt       5.91921247       7.85914352       5.91490253 subsurface
Pt       7.88840612       7.85710343       3.88043003 subsurface
Pt       9.85735598       9.83228015       3.88593361 subsurface
Pt       7.89072158       9.83317846       5.91749160 subsurface
Pt       9.86397464       7.85955225       5.91841036 subsurface
Pt       0.01376854       0.01744747       7.98906612 subsurface
Pt       1.95030874       1.95919166       7.97711900 subsurface
Pt      -0.00046777       1.93014127      10.23764279 surface
Pt       2.00048657      -0.02520923       9.95230253 surface
Pt       3.94766646      -0.01106797       7.93517767 subsurface
Pt       5.91700181       1.95716127       7.93037447 subsurface
Pt       3.95218359       1.97315202       9.95941618 surface
Pt       5.91616386      -0.02198786       9.94018686 surface
Pt       7.88837480      -0.01213557       7.93261878 subsurface
Pt       9.89545083       1.95609243       7.98358503 subsurface
Pt       7.87407111       1.95533970       9.94814159 surface
Pt       9.84331484      -0.03246917       9.94451950 surface
Pt       0.01760741       3.89358892       7.97744669 subsurface
Pt       1.97977563       5.88877454       7.92110061 subsurface
Pt       0.02915146       5.89056582       9.96873141 surface
Pt       2.01451129       3.95404627       9.92892071 surface
Pt       3.94623821       3.92438479       7.91522106 subsurface
Pt       5.92229613       5.88561254       7.92389446 subsurface
Pt       3.96558323       5.91122499       9.95535234 surface
Pt       5.92828506       3.93285394       9.94683070 surface
Pt       7.90170617       3.91780237       7.93826471 subsurface
Pt       9.87022695       5.88508125       7.94033989 subsurface
Pt       7.88922657       5.89494056       9.94398269 surface
Pt       9.87757070       3.92347068       9.97897629 surface
Pt       0.00978311       7.85715888       7.93076198 subsurface
Pt       1.97613904       9.83469629       7.93444540 subsurface
Pt       0.00900081       9.81362488       9.94627797 surface
Pt       1.98723363       7.86850169       9.94883571 surface
Pt       3.94784093       7.85888249       7.92319129 subsurface
Pt       5.91913150       9.83147816       7.92713627 subsurface
Pt       3.96469040       9.81574667       9.94111335 surface
Pt       5.93023827       7.85505809       9.94560062 surface
Pt       7.89399177       7.85751508       7.92698725 subsurface
Pt       9.86303458       9.83143291       7.92946395 subsurface
Pt       7.87806493       9.82187419       9.93772664 surface
Pt       9.85408345       7.86134250       9.94574370 surface
O       -0.37224910       1.55269605      13.13363151 adsorbate
C        0.22987096       2.30166878      12.19699170 adsorbate
O        0.96586629       3.26690913      12.69718460 adsorbate
H        1.40428924       3.77148221      11.90092984 adsorbate
H       -0.11993205       1.91466653      14.01175780 adsorbate
114
Lattice="11.82 0.0 0.0 0.0 11.82 0.0 0.0 0.0 30.82" Properties=species:S:1:pos:R:3:surface_properties:S:1 fragment_signature="[OH][CH]([OH])[F]" step=4 action="Add H at 1" fragment_id=0 energy=-660.74197344 pbc="T T T"