31
Lattice="7.668573041968109 0.0 0.0 0.0 7.668573041968109 0.0 0.0 0.0 27.615000000000002" Properties=species:S:1:pos:R:3:surface_properties:S:1:forces:R:3 energy=-125.21527862548828 free_energy=-125.21527862548828 stress="0.007864059880375862 -8.522390089638066e-06 -1.6991225493256934e-05 -8.522390089638066e-06 0.00747921084985137 -9.27098371903412e-05 -1.6991225493256934e-05 -9.27098371903412e-05 0.00011670705862343311" pbc="T T T"
Cu      -0.00367490      -0.01342835      12.05266284 subsurface      -0.00212883      -0.00184548       0.00342903
Cu       2.58142223      -0.01279834      12.05041136 subsurface      -0.00093952      -0.00773902       0.00915056
Cu       5.12183966      -0.01082948      12.06545067 subsurface       0.00606769       0.00643216       0.00267448
Cu      -0.00995585       2.53578808      12.05144416 subsurface       0.00204553      -0.00852421       0.00145781
Cu       2.57604242       2.53498381      12.04864490 subsurface      -0.00432919      -0.00928175       0.00494367
Cu       5.11723296       2.53088632      12.07044466 subsurface      -0.00081744      -0.01710188       0.01299688
Cu      -0.00914029       5.09397059      12.04811432 subsurface       0.00792327      -0.00025881      -0.01111966
Cu       2.57795397       5.09218561      12.04525727 subsurface      -0.01070380       0.00521753      -0.00838399
Cu       5.11814527       5.09082625      12.06034869 subsurface       0.00419365       0.01176548      -0.00200698
Cu       1.28705208       1.26108509      13.79521761 subsurface      -0.00397862       0.00007618       0.00041753
Cu       3.86813082       1.25686753      13.86023399 subsurface       0.00425750       0.01527467      -0.01036047
Cu       6.37233421       1.25966247      13.86028209 subsurface      -0.00517998       0.00423600      -0.00590714
Cu       1.28252761       3.81329875      13.78497144 subsurface      -0.00502854       0.00934078       0.01153870
Cu       3.85010193       3.79861916      13.83110237 subsurface      -0.00011985      -0.00920744       0.00068351
Cu       6.37842492       3.79869228      13.83415208 subsurface       0.00598677      -0.00294190      -0.00256792
Cu       1.28925426       6.36367485      13.77959897 subsurface      -0.00282722      -0.00780783       0.01916852
Cu       3.86447252       6.38941645      13.83270879 subsurface      -0.00693559       0.00225424       0.00968382
Cu       6.38180196       6.39039763      13.83397711 subsurface       0.00411773       0.00695057       0.00789974
Cu       0.04673106      -0.03035820      15.55311251 surface      -0.00241269       0.00579315       0.00374070
Cu       2.54116823      -0.03782741      15.55072219 surface       0.00098564       0.00933356       0.01035309
Cu       5.13734572      -0.09168197      15.70208040 surface      -0.00721024      -0.02767061      -0.02553810
Cu       0.02646681       2.54889284      15.56550751 surface      -0.00374876      -0.00046163      -0.01533973
Cu       2.52793264       2.54250172      15.56726393 surface       0.01296571      -0.00006146      -0.01489313
Cu       5.10266085       2.60659266      15.70959903 surface       0.00103589      -0.01282693       0.02152219
Cu       0.01144783       5.08536957      15.56174352 surface      -0.01524286       0.00277656       0.01294309
Cu       2.55747575       5.08089499      15.56145849 surface       0.01360144       0.00338815       0.01332477
Cu       5.11729815       5.09541328      15.56784937 surface       0.00447548      -0.00454566      -0.01784787
O        5.13810924       0.61330366      17.60169516 adsorbate      -0.03232451      -0.01558965       0.00692022
C        5.06380162       1.86840229      17.44712163 adsorbate       0.02504268       0.00414866      -0.01825368
O        4.97722546       2.58714127      18.60624599 adsorbate       0.01118504       0.01416528      -0.01390797
H        4.99078974       1.93782715      19.34577530 adsorbate       0.00004367       0.02471155      -0.00672138
31
Lattice="7.668573041968109 0.0 0.0 0.0 7.668573041968109 0.0 0.0 0.0 27.615000000000002" Properties=species:S:1:pos:R:3:surface_properties:S:1:forces:R:3 energy=-125.44548034667969 free_energy=-125.44548034667969 stress="0.008024577051401138 -3.388385448488407e-05 -7.497089882235741e-06 -3.388385448488407e-05 0.007004060782492161 -5.606180275208317e-05 -7.497089882235741e-06 -5.606180275208317e-05 -5.342649819795042e-05" pbc="T T T"
Cu       0.11407349       0.02538027      12.08429346 subsurface       0.00105632       0.00695021       0.00672379
Cu       2.66370486       0.02340003      12.07961408 subsurface      -0.00141580       0.01599238       0.01281229
Cu       5.23051278       0.05587156      12.09098492 subsurface      -0.00128635      -0.01370059      -0.02425610
Cu       0.08967105       2.57458453      12.09321522 subsurface       0.00201993       0.00152828       0.00211757
Cu       2.64391816       2.57400625      12.07820588 subsurface      -0.00030328       0.00696760       0.00013269
Cu       5.20115282       2.60317730      12.08064955 subsurface       0.02125470      -0.00818825       0.00489697
Cu       0.12589205       5.12689587      12.08638811 subsurface      -0.00464477      -0.00438096       0.00608066
Cu       2.68001588       5.12397042      12.07426615 subsurface      -0.03073898       0.00555346       0.00641063
Cu       5.24485490       5.15222771      12.07751990 subsurface      -0.01502339      -0.00914151      -0.00712770
Cu       1.40243804       1.30239807      13.86948978 subsurface       0.02146718      -0.03106163       0.00549393
Cu       3.93398410       1.33187963      13.81498893 subsurface      -0.00191173      -0.00877642       0.01983104
Cu       6.47322014       1.30961088      13.87153271 subsurface       0.00216343       0.02256306      -0.02130438
Cu       1.39848575       3.83160161      13.86489131 subsurface      -0.00149852       0.01976947      -0.02123510
Cu       3.93148729       3.85045566      13.84935098 subsurface       0.02061841      -0.00576688       0.00550653
Cu       6.47634914       3.85145700      13.86067402 subsurface      -0.00423043      -0.02229700      -0.00798335
Cu       1.40260321       6.42035447      13.84544460 subsurface       0.01817086       0.01316912      -0.01858788
Cu       3.95405266       6.43067668      13.81488715 subsurface      -0.02657966      -0.00393367       0.00802101
Cu       6.50329809       6.43396270      13.84494494 subsurface      -0.00139922      -0.00126392      -0.01853098
Cu       0.12443547      -0.00156663      15.59383682 surface      -0.00031454       0.01222519       0.00165007
Cu       2.68544987      -0.02673162      15.63420438 surface      -0.01763398       0.00069072      -0.03498410
Cu       5.23395496      -0.00242451      15.61750218 surface      -0.00480949      -0.00693123       0.00402622
Cu       0.09394047       2.57148557      15.59211359 surface      -0.00082594       0.01228629       0.01280521
Cu       2.61547252       2.64725177      15.68978381 surface       0.00410184      -0.00482138      -0.00354228
Cu       5.23670154       2.66991195      15.67488491 surface       0.01518729      -0.00736944       0.01750764
Cu       0.10469735       5.13501783      15.59748636 surface       0.00283606       0.00302517       0.01933870
Cu       2.65365811       5.15558369      15.58203448 surface       0.01432539      -0.01509838      -0.00301766
Cu       5.22156063       5.17034000      15.57669660 surface       0.00366542      -0.00903800       0.01356964
O        3.92860452       1.99607680      17.19843542 adsorbate       0.01600482      -0.01130887      -0.00423430
C        3.98327305       0.69385042      17.08875324 adsorbate      -0.00970600       0.02510792       0.00848866
O        4.03643397       0.09629574      18.33416178 adsorbate      -0.02205559       0.01694959       0.00659671
H        4.07733382      -0.87062707      18.17492995 adsorbate       0.00150596       0.00029975       0.00279422
32
Lattice="7.668573041968109 0.0 0.0 0.0 7.668573041968109 0.0 0.0 0.0 27.615000000000002" Properties=species:S:1:pos:R:3:surface_properties:S:1:forces:R:3 energy=-128.0144805908203 free_energy=-128.0144805908203 stress="0.008236333727836609 -0.0001422576024197042 0.00010519447096157819 -0.0001422576024197042 0.008551648817956448 6.85806226101704e-05 0.00010519447096157819 6.85806226101704e-05 7.123139221221209e-05" pbc="T T T"
Cu      -0.00946846       0.05826679      12.05042799 subsurface       0.00856962       0.00948735       0.00923440
Cu       2.55983693       0.04094183      12.05540673 subsurface       0.01356716       0.01725818       0.00286624
Cu       5.10989192       0.09313057      12.06407296 subsurface       0.00803035       0.00211026       0.00598268
Cu       0.03998587       2.61986658      12.05713644 subsurface      -0.00851681       0.00927480       0.00485247
Cu       2.61001609       2.60359528      12.05785631 subsurface      -0.00834056       0.00617966       0.00030237
Cu       5.15604955       2.65649531      12.06612118 subsurface      -0.00237303      -0.02611795       0.01589440
Cu       0.00637443       5.17481900      12.05584823 subsurface       0.02032009       0.00017173       0.00162092
Cu       2.58655763       5.16094830      12.05962739 subsurface      -0.00604486      -0.00288593      -0.00357762
Cu       5.13091102       5.20933372      12.06627994 subsurface       0.00531682      -0.00796794       0.00357223
Cu       1.29937149       1.32418704      13.80844201 subsurface       0.00805013       0.01642682       0.00642221
Cu       3.86373924       1.34720829      13.83066608 subsurface       0.00803271      -0.00440350      -0.03035178
Cu       6.40507399       1.36057301      13.82367755 subsurface      -0.00362418       0.00556475      -0.01645274
Cu       1.32662472       3.88578703      13.80813712 subsurface      -0.00384400       0.01119867      -0.00704729
Cu       3.88778330       3.89101146      13.84536567 subsurface      -0.00255289      -0.00763194       0.00296830
Cu       6.41700739       3.91469860      13.84113017 subsurface      -0.00181359      -0.01087301      -0.00647781
Cu       1.27390535       6.43885620      13.80507594 subsurface       0.00380495      -0.00079251       0.00769205
Cu       3.85433424       6.47171954      13.84116448 subsurface       0.00866757       0.00507587       0.01462699
Cu       6.38293585       6.49546316      13.84443148 subsurface       0.00048543      -0.00719182       0.01027026
Cu      -0.00398343       0.08170784      15.60066745 surface       0.01235862      -0.00002889      -0.01468762
Cu       2.51413877       0.01958405      15.55995527 surface      -0.00485800       0.00662846      -0.01454350
Cu       5.09666048       0.11226482      15.67234364 surface      -0.00751853      -0.00441464      -0.01360660
Cu       0.08947699       2.63990203      15.55070825 surface       0.00313737       0.00459104       0.00824894
Cu       2.60506490       2.58458159      15.59819777 surface       0.00732900       0.00131979       0.00804301
Cu       5.18255629       2.65512871      15.64487499 surface       0.00041146      -0.01047130       0.01189014
Cu       0.02864051       5.18427558      15.58569850 surface      -0.01727000       0.01024661      -0.00304016
Cu       2.57988631       5.14591861      15.58102444 surface       0.00831338       0.01345655       0.00630710
Cu       5.14025716       5.21875311      15.58996765 surface      -0.01049924      -0.01065978      -0.01930799
O        6.27984582       1.18785493      18.02632734 adsorbate      -0.01619148      -0.00868577      -0.00053805
C        5.16149976       1.41462327      17.28522652 adsorbate      -0.04159170      -0.00645520       0.00313604
O        4.04279057       1.69682968      18.01105279 adsorbate      -0.01636517       0.00219697       0.02897763
H        4.10708328       1.39575951      18.94301407 adsorbate       0.02511838       0.00023484      -0.02860451
H        6.19372116       1.51812545      18.94614460 adsorbate       0.00989118      -0.01284230       0.00532794
33
Lattice="7.668573041968109 0.0 0.0 0.0 7.668573041968109 0.0 0.0 0.0 27.615000000000002" Properties=species:S:1:pos:R:3:surface_properties:S:1:forces:R:3 energy=-132.31556701660156 free_energy=-132.31556701660156 stress="0.007798732258379459 2.266508317916305e-06 -9.973286068998277e-05 2.266508317916305e-06 0.007807351648807526 1.0624032256600913e-05 -9.973286068998277e-05 1.0624032256600913e-05 3.358665344421752e-05" pbc="T T T"
Cu      -0.15412738       0.00107929      12.06626440 subsurface       0.01421632       0.00356866       0.00428161
Cu       2.40648914       0.00767046      12.06889713 subsurface       0.02457568      -0.00134318      -0.00697753
Cu       4.95571750       0.00948484      12.07967678 subsurface      -0.00219525      -0.00556132       0.00432369
Cu      -0.12054900       2.54551475      12.05973673 subsurface      -0.01240681       0.00657662      -0.00104079
Cu       2.43988489       2.55161483      12.06381189 subsurface      -0.00585817      -0.00606353       0.00252765
Cu       4.98956618       2.55558056      12.06468964 subsurface      -0.00222269      -0.01304241      -0.00092810
Cu      -0.11797161       5.12567085      12.05906012 subsurface      -0.00804822      -0.00314532      -0.00924313
Cu       2.44159254       5.12744347      12.05754046 subsurface      -0.00040648       0.00828301       0.00776631
Cu       4.99567216       5.12767526      12.05966459 subsurface      -0.01020747       0.00382380       0.00316676
Cu       1.15393354       1.26289447      13.83975093 subsurface      -0.00377399       0.00879989       0.02228494
Cu       3.69462984       1.26175619      13.86499835 subsurface       0.02308382      -0.01072916      -0.00932274
Cu       6.23382095       1.26557148      13.84542818 subsurface      -0.02200340       0.01311931      -0.00217901
Cu       1.15450559       3.84143640      13.79293535 subsurface      -0.01869724       0.00325028       0.01521597
Cu       3.72320151       3.84037115      13.81073740 subsurface       0.00080046       0.00176855      -0.01142857
Cu       6.27169805       3.83700333      13.80931029 subsurface       0.00634233      -0.00042199      -0.01328543
Cu       1.15990677       6.41551971      13.83735050 subsurface      -0.01398871      -0.01312245       0.02316994
Cu       3.69861280       6.41895151      13.85274624 subsurface       0.01637641       0.01616068      -0.00095072
Cu       6.24171416       6.40668263      13.84109755 subsurface      -0.02021037      -0.00383136      -0.01061358
Cu      -0.16196895       0.00810350      15.59019574 surface       0.00807705      -0.00519492      -0.01689419
Cu       2.34756818      -0.00058077      15.68196726 surface      -0.01932038      -0.00903115       0.01561729
Cu       4.98302638      -0.00224537      15.66722256 surface       0.03644344      -0.00571591      -0.00012714
Cu      -0.13130883       2.55881911      15.58358792 surface      -0.00243979      -0.00153736       0.00588867
Cu       2.41841133       2.59807540      15.55644748 surface      -0.00665949       0.01279525      -0.00595979
Cu       4.99771811       2.58501444      15.58363828 surface      -0.00240428       0.01899491      -0.01268156
Cu      -0.11760712       5.10936857      15.57671854 surface      -0.00445825       0.00897081       0.00138766
Cu       2.43854522       5.10425841      15.56336572 surface      -0.00985600      -0.01662949       0.00802971
Cu       4.99935906       5.08984812      15.58522608 surface      -0.00073347      -0.00979230      -0.01095432
O        4.88540065       1.11278090      18.32489308 adsorbate       0.01199210      -0.00484109      -0.02576107
C        4.45224749       0.00365205      17.61691722 adsorbate      -0.00040376       0.00688839       0.00242051
O        3.03900219      -0.03325118      17.66875185 adsorbate       0.01264144       0.01388925       0.02981317
H        2.76483947       0.67298916      18.29707683 adsorbate       0.02616110      -0.00487095       0.00787145
H        5.79830619       1.30201341      18.02533503 adsorbate      -0.00650817       0.00425406      -0.02195992
H        4.84113998      -0.92524246      18.07001752 adsorbate      -0.00790781      -0.01626986       0.00654218
31
Lattice="7.668573041968109 0.0 0.0 0.0 7.668573041968109 0.0 0.0 0.0 27.615000000000002" Properties=species:S:1:pos:R:3:surface_properties:S:1:forces:R:3 energy=-121.55111694335938 free_energy=-121.55111694335938 stress="0.007761120796203613 -2.7496720576891676e-05 -0.0001001259806798771 -2.7496720576891676e-05 0.00806825328618288 -2.2844731574878097e-05 -0.0001001259806798771 -2.2844731574878097e-05 -1.4106720300333109e-05" pbc="T T T"
Cu      -0.08131871       0.02472301      12.09701421 subsurface      -0.00657861      -0.01011315       0.00189681
Cu       2.47602370       0.02009796      12.09415796 subsurface      -0.00101288      -0.00853133       0.00724348
Cu       5.03894337       0.01867347      12.09671981 subsurface      -0.00681865       0.00365103       0.00492971
Cu      -0.09271570       2.57593705      12.09754781 subsurface       0.00228331       0.00676166       0.00159000
Cu       2.46509070       2.57731971      12.09610261 subsurface       0.00541479       0.00430355      -0.00222734
Cu       5.02672628       2.57622002      12.09580254 subsurface       0.00131710       0.00073286       0.00279257
Cu      -0.06712232       5.13537296      12.10537986 subsurface      -0.01085416      -0.00195317      -0.01093632
Cu       2.49267921       5.13171222      12.10651288 subsurface      -0.01006113       0.00442938      -0.00821623
Cu       5.05146303       5.13266423      12.09400297 subsurface      -0.01339844      -0.00172209       0.01227674
Cu       1.17561279       1.29827221      13.86738827 subsurface       0.00154312       0.00247634      -0.00733984
Cu       3.75696019       1.30022426      13.84730586 subsurface       0.00598708      -0.00486387      -0.00102568
Cu       6.30560922       1.29755567      13.85282751 subsurface       0.01952514      -0.00195719       0.00887015
Cu       1.18894946       3.84140648      13.86281307 subsurface      -0.00589909       0.01205057       0.00639546
Cu       3.77447918       3.84131786      13.86881842 subsurface       0.01220476      -0.00727323      -0.00478596
Cu       6.30362391       3.83925570      13.87508733 subsurface       0.00752589      -0.01041684      -0.00819416
Cu       1.19156341       6.42528500      13.86440591 subsurface      -0.00532327      -0.00068925       0.00836772
Cu       3.78065997       6.42249529      13.86645979 subsurface      -0.00571771       0.00246897      -0.00945974
Cu       6.31166313       6.42853974      13.87852685 subsurface       0.00092910       0.00719156      -0.00842806
Cu      -0.04852853       0.00028036      15.66368492 surface       0.00744128       0.00695565      -0.01088095
Cu       2.47294823       0.01019061      15.59836351 surface      -0.01365282       0.00022559      -0.00048375
Cu       5.01640346       0.01485849      15.69151537 surface      -0.01064004      -0.00248611      -0.00498021
Cu      -0.06387782       2.60234793      15.65140283 surface       0.00745177      -0.00702387       0.00381391
Cu       2.46841240       2.58998795      15.60009704 surface      -0.00627698      -0.00346335      -0.00090900
Cu       5.03370368       2.57205372      15.70066687 surface       0.00448955       0.00854516      -0.00392258
Cu      -0.07158340       5.13070268      15.60508529 surface       0.00544257       0.00361631       0.00721058
Cu       2.49056881       5.13536769      15.60354981 surface      -0.01450434      -0.00105289       0.02093861
Cu       5.03171977       5.12885505      15.60809386 surface      -0.00046729      -0.00257973      -0.01234835
C        5.52482581       1.28939660      17.10188273 adsorbate      -0.00977561      -0.01332459       0.01766145
O        6.86918424       1.25668396      17.53620844 adsorbate       0.00822598      -0.00633277      -0.02472171
H        6.95329698       1.04148517      18.49322663 adsorbate       0.00131638       0.01893677       0.03293240
H        4.89579477       1.30772444      18.00451352 adsorbate       0.02988318       0.00143789      -0.01805979
32
Lattice="7.668573041968109 0.0 0.0 0.0 7.668573041968109 0.0 0.0 0.0 27.615000000000002" Properties=species:S:1:pos:R:3:surface_properties:S:1:forces:R:3 energy=-125.68592834472656 free_energy=-125.68592834472656 stress="0.0071462527848780155 -4.7456222091568634e-05 -8.249304664786905e-05 -4.7456222091568634e-05 0.008035166189074516 2.7904603484785184e-05 -8.249304664786905e-05 2.7904603484785184e-05 -0.00010708317131502554" pbc="T T T"
Cu       0.12421160      -0.03279274      12.08392498 subsurface      -0.00274381      -0.00174607       0.00406900
Cu       2.68323356      -0.04625581      12.08549463 subsurface      -0.00622240       0.00592494       0.00429328
Cu       5.22637169      -0.03651090      12.08907675 subsurface      -0.00079624       0.00061383       0.00071473
Cu       0.13143978       2.53300872      12.08725959 subsurface       0.00174225      -0.00792380      -0.01235616
Cu       2.69149326       2.50941233      12.09306590 subsurface      -0.00500478       0.00679457      -0.01575564
Cu       5.23731054       2.52249751      12.09008557 subsurface      -0.00738392       0.01092009      -0.02097742
Cu       0.14109368       5.08493349      12.09487038 subsurface      -0.00729660       0.00297086       0.00329512
Cu       2.70264884       5.06740212      12.09492004 subsurface      -0.00612650       0.00756650       0.01257437
Cu       5.25051735       5.07897270      12.09445986 subsurface      -0.01643371      -0.00251757      -0.00136927
Cu       1.41800840       1.23710418      13.85080908 subsurface       0.01043568      -0.00174709       0.00595829
Cu       3.94647479       1.23557618      13.85078654 subsurface       0.00480441      -0.00047733       0.02403817
Cu       6.49927989       1.24989796      13.83246331 subsurface       0.00232900      -0.00443307       0.00718172
Cu       1.42553269       3.78567163      13.85338276 subsurface       0.00810552      -0.00353283      -0.00295168
Cu       3.97650658       3.77067494      13.87443765 subsurface      -0.00019178       0.01085351      -0.01105041
Cu       6.51059850       3.79603642      13.85897847 subsurface      -0.00482698      -0.00693559      -0.01784470
Cu       1.42279076       6.37080604      13.85981736 subsurface      -0.00272144      -0.00799792       0.00703735
Cu       3.96398527       6.37746257      13.87696856 subsurface       0.00060465      -0.00775693      -0.00011051
Cu       6.49517981       6.37353680      13.85918887 subsurface       0.00029255       0.01570189      -0.00968129
Cu       0.09913817      -0.03604306      15.57868123 surface       0.01713163       0.00215847       0.00230397
Cu       2.61555678      -0.09057635      15.67206909 surface       0.00257677      -0.01225615      -0.00708597
Cu       5.25021284       0.00107124      15.66289616 surface       0.00350477      -0.00059399      -0.00234896
Cu       0.13505566       2.53574157      15.58020669 surface      -0.00284102      -0.00229190       0.00182500
Cu       2.64558708       2.54117634      15.64762585 surface      -0.02128069       0.01370558      -0.00367317
Cu       5.28654833       2.51875962      15.65707371 surface       0.01797853      -0.01668618      -0.00377454
Cu       0.13196083       5.08601359      15.60515121 surface      -0.00206356      -0.00503182      -0.01886746
Cu       2.68378516       5.05584542      15.59651743 surface       0.00624009       0.00010255      -0.00072779
Cu       5.25591981       5.08127640      15.59339330 surface       0.00125666       0.00643364       0.01513486
C        4.65246677       1.14322259      17.26470964 adsorbate       0.03636912      -0.02958716       0.00017902
O        3.20895936       1.09571907      17.35875795 adsorbate      -0.00473693      -0.00821674       0.01363888
H        2.90556784       0.91418667      18.27606913 adsorbate      -0.01054118       0.00721582       0.02294558
H        5.10404871       0.42732148      17.96631578 adsorbate      -0.02228230       0.02956957      -0.00305000
H        4.96521802       2.18417085      17.50807762 adsorbate       0.01012227      -0.00079951       0.00643516
30
Lattice="7.668573041968109 0.0 0.0 0.0 7.668573041968109 0.0 0.0 0.0 27.615000000000002" Properties=species:S:1:pos:R:3:surface_properties:S:1:forces:R:3 energy=-115.08748626708984 free_energy=-115.08748626708984 stress="0.008670374751091003 -1.3938949450675864e-05 1.8895239918492734e-05 -1.3938949450675864e-05 0.007780664600431919 7.126757736841682e-06 1.8895239918492734e-05 7.126757736841682e-06 7.499250932596624e-05" pbc="T T T"
Cu       0.11075117      -0.03491147      12.12100185 subsurface       0.01398526       0.00691917      -0.01413608
Cu       2.66577284      -0.02848037      12.09206954 subsurface      -0.00354475       0.00258733       0.01919462
Cu       5.23787882      -0.02839079      12.09131842 subsurface      -0.00462163       0.00496740       0.00759165
Cu       0.12408814       2.52368674      12.11848894 subsurface      -0.00086067       0.00464186      -0.00200714
Cu       2.67271143       2.53460394      12.08992035 subsurface       0.00092332      -0.00977015       0.00691311
Cu       5.24696085       2.53843627      12.09299300 subsurface      -0.00920784      -0.00966028       0.01010711
Cu       0.11138327       5.07972776      12.12674289 subsurface      -0.00686535      -0.00631636      -0.00447372
Cu       2.66502339       5.08491359      12.10326419 subsurface       0.00295941       0.00324186      -0.00417916
Cu       5.23225820       5.09057057      12.10646737 subsurface       0.00631639      -0.00323566      -0.00339584
Cu       1.41059066       1.25198226      13.88349509 subsurface       0.00558019      -0.01136416      -0.01376812
Cu       3.95467594       1.25362853      13.79505223 subsurface      -0.00243596      -0.00772102      -0.01480895
Cu       6.50326585       1.24885055      13.87925639 subsurface       0.00100591       0.00145380      -0.00235332
Cu       1.41345688       3.78752714      13.88479618 subsurface       0.01214389      -0.00043263       0.01226893
Cu       3.95493446       3.80564608      13.85963122 subsurface      -0.00458753       0.00720122      -0.00103013
Cu       6.49091386       3.78989581      13.89365573 subsurface       0.00571204       0.00796172      -0.00178215
Cu       1.40094343       6.36922618      13.87614245 subsurface       0.01108742       0.01280429       0.00672191
Cu       3.95539564       6.37313695      13.86146017 subsurface      -0.01319720      -0.00047226       0.01030166
Cu       6.48312316       6.37935751      13.89731048 subsurface      -0.00318431       0.01689802       0.01058062
Cu       0.11783550      -0.04889459      15.62227715 surface      -0.01273829      -0.00721891      -0.01254414
Cu       2.66990209      -0.10665206      15.68270100 surface       0.01283989      -0.01517900       0.01329017
Cu       5.20220502      -0.01201205      15.74205979 surface       0.00797090      -0.03172870      -0.02213532
Cu       0.13549922       2.54732047      15.61845515 surface      -0.00000609      -0.00400918       0.00948602
Cu       2.72062565       2.60149572      15.73508132 surface       0.00125109      -0.00442214       0.00800461
Cu       5.19473244       2.53378265      15.69519268 surface      -0.00951946       0.00476885       0.00144026
Cu       0.11956714       5.08161082      15.62398468 surface       0.00852397       0.01175549       0.00592318
Cu       2.66205343       5.08161290      15.61386553 surface      -0.00326997      -0.00604209      -0.00191756
Cu       5.23468840       5.09293476      15.61877463 surface      -0.00842142       0.01171242       0.00140777
C        4.09072775       1.28119395      16.76868085 adsorbate       0.02253531       0.01257918      -0.00896661
H        3.01364515       1.05585256      16.97043621 adsorbate      -0.03062677       0.02057843       0.01298491
H        4.44984343       1.37472928      17.81103339 adsorbate       0.00025198      -0.01249857      -0.02871850
31
Lattice="7.668573041968109 0.0 0.0 0.0 7.668573041968109 0.0 0.0 0.0 27.615000000000002" Properties=species:S:1:pos:R:3:surface_properties:S:1:forces:R:3 energy=-119.28506469726562 free_energy=-119.28506469726562 stress="0.007923474535346031 2.826888157869689e-05 9.803212742554024e-05 2.826888157869689e-05 0.008682025596499443 -2.6961057301377878e-05 9.803212742554024e-05 -2.6961057301377878e-05 0.00010431638656882569" pbc="T T T"
Cu      -0.00534684      -0.00475417      12.06740823 subsurface       0.00330779       0.00006786       0.01281975
Cu       2.56976244      -0.00448052      12.06732278 subsurface       0.00269043      -0.00084981       0.00985353
Cu       5.11558918      -0.00580063      12.07913553 subsurface       0.00509849      -0.00256016      -0.00531222
Cu      -0.00586452       2.55879039      12.06833512 subsurface       0.00226205      -0.00174134       0.01107173
Cu       2.56891277       2.55845546      12.06804355 subsurface       0.00012961      -0.00129705       0.00794116
Cu       5.11515510       2.55482560      12.08149856 subsurface       0.00241962      -0.00174896      -0.00644234
Cu      -0.01021996       5.10995985      12.08151763 subsurface      -0.00559320      -0.00222343       0.00652573
Cu       2.57005163       5.10994469      12.08091144 subsurface       0.00771870      -0.00185146       0.00408623
Cu       5.11373359       5.10859910      12.08803500 subsurface       0.00210652      -0.00324423       0.02151129
Cu       1.28535156       1.27963786      13.81701587 subsurface      -0.00111371      -0.00188283      -0.00296544